UO2(111) 

24000 atoms

0 bonds
0 angles
0 dihedrals
0 impropers

2 atom types
0 bond types
0 angle types
0 dihedral types
0 improper types


0 66.99354446511991 xlo xhi
0 77.3574818618083 ylo yhi
0 66.99354446511991 zlo zhi


Atoms

1 2 -1.2 0.0 1.9339370465452075 0.8374193058139989
2 2 -1.2 0.0 5.801811139635623 0.8374193058139989
3 2 -1.2 0.0 9.669685232726037 0.8374193058139989
4 2 -1.2 0.0 13.537559325816453 0.8374193058139989
5 2 -1.2 0.0 17.405433418906867 0.8374193058139989
6 2 -1.2 0.0 21.27330751199728 0.8374193058139989
7 2 -1.2 0.0 25.1411816050877 0.8374193058139989
8 2 -1.2 0.0 29.009055698178113 0.8374193058139989
9 2 -1.2 0.0 32.87692979126853 0.8374193058139989
10 2 -1.2 0.0 36.744803884358944 0.8374193058139989
11 2 -1.2 0.0 40.61267797744936 0.8374193058139989
12 2 -1.2 0.0 44.48055207053977 0.8374193058139989
13 2 -1.2 0.0 48.348426163630194 0.8374193058139989
14 2 -1.2 0.0 52.21630025672061 0.8374193058139989
15 2 -1.2 0.0 56.08417434981102 0.8374193058139989
16 2 -1.2 0.0 59.952048442901436 0.8374193058139989
17 2 -1.2 0.0 63.81992253599185 0.8374193058139989
18 2 -1.2 0.0 67.68779662908227 0.8374193058139989
19 2 -1.2 0.0 71.55567072217268 0.8374193058139989
20 2 -1.2 0.0 75.4235448152631 0.8374193058139989
21 2 -1.2 3.3496772232559957 0.0 0.8374193058139989
22 2 -1.2 3.3496772232559957 3.867874093090415 0.8374193058139989
23 2 -1.2 3.3496772232559957 7.73574818618083 0.8374193058139989
24 2 -1.2 3.3496772232559957 11.603622279271246 0.8374193058139989
25 2 -1.2 3.3496772232559957 15.47149637236166 0.8374193058139989
26 2 -1.2 3.3496772232559957 19.339370465452074 0.8374193058139989
27 2 -1.2 3.3496772232559957 23.20724455854249 0.8374193058139989
28 2 -1.2 3.3496772232559957 27.075118651632906 0.8374193058139989
29 2 -1.2 3.3496772232559957 30.94299274472332 0.8374193058139989
30 2 -1.2 3.3496772232559957 34.810866837813734 0.8374193058139989
31 2 -1.2 3.3496772232559957 38.67874093090415 0.8374193058139989
32 2 -1.2 3.3496772232559957 42.54661502399456 0.8374193058139989
33 2 -1.2 3.3496772232559957 46.41448911708498 0.8374193058139989
34 2 -1.2 3.3496772232559957 50.2823632101754 0.8374193058139989
35 2 -1.2 3.3496772232559957 54.15023730326581 0.8374193058139989
36 2 -1.2 3.3496772232559957 58.018111396356225 0.8374193058139989
37 2 -1.2 3.3496772232559957 61.88598548944664 0.8374193058139989
38 2 -1.2 3.3496772232559957 65.75385958253706 0.8374193058139989
39 2 -1.2 3.3496772232559957 69.62173367562747 0.8374193058139989
40 2 -1.2 3.3496772232559957 73.48960776871789 0.8374193058139989
41 2 -1.2 6.699354446511991 1.9339370465452075 0.8374193058139989
42 2 -1.2 6.699354446511991 5.801811139635623 0.8374193058139989
43 2 -1.2 6.699354446511991 9.669685232726037 0.8374193058139989
44 2 -1.2 6.699354446511991 13.537559325816453 0.8374193058139989
45 2 -1.2 6.699354446511991 17.405433418906867 0.8374193058139989
46 2 -1.2 6.699354446511991 21.27330751199728 0.8374193058139989
47 2 -1.2 6.699354446511991 25.1411816050877 0.8374193058139989
48 2 -1.2 6.699354446511991 29.009055698178113 0.8374193058139989
49 2 -1.2 6.699354446511991 32.87692979126853 0.8374193058139989
50 2 -1.2 6.699354446511991 36.744803884358944 0.8374193058139989
51 2 -1.2 6.699354446511991 40.61267797744936 0.8374193058139989
52 2 -1.2 6.699354446511991 44.48055207053977 0.8374193058139989
53 2 -1.2 6.699354446511991 48.348426163630194 0.8374193058139989
54 2 -1.2 6.699354446511991 52.21630025672061 0.8374193058139989
55 2 -1.2 6.699354446511991 56.08417434981102 0.8374193058139989
56 2 -1.2 6.699354446511991 59.952048442901436 0.8374193058139989
57 2 -1.2 6.699354446511991 63.81992253599185 0.8374193058139989
58 2 -1.2 6.699354446511991 67.68779662908227 0.8374193058139989
59 2 -1.2 6.699354446511991 71.55567072217268 0.8374193058139989
60 2 -1.2 6.699354446511991 75.4235448152631 0.8374193058139989
61 2 -1.2 10.049031669767988 0.0 0.8374193058139989
62 2 -1.2 10.049031669767988 3.867874093090415 0.8374193058139989
63 2 -1.2 10.049031669767988 7.73574818618083 0.8374193058139989
64 2 -1.2 10.049031669767988 11.603622279271246 0.8374193058139989
65 2 -1.2 10.049031669767988 15.47149637236166 0.8374193058139989
66 2 -1.2 10.049031669767988 19.339370465452074 0.8374193058139989
67 2 -1.2 10.049031669767988 23.20724455854249 0.8374193058139989
68 2 -1.2 10.049031669767988 27.075118651632906 0.8374193058139989
69 2 -1.2 10.049031669767988 30.94299274472332 0.8374193058139989
70 2 -1.2 10.049031669767988 34.810866837813734 0.8374193058139989
71 2 -1.2 10.049031669767988 38.67874093090415 0.8374193058139989
72 2 -1.2 10.049031669767988 42.54661502399456 0.8374193058139989
73 2 -1.2 10.049031669767988 46.41448911708498 0.8374193058139989
74 2 -1.2 10.049031669767988 50.2823632101754 0.8374193058139989
75 2 -1.2 10.049031669767988 54.15023730326581 0.8374193058139989
76 2 -1.2 10.049031669767988 58.018111396356225 0.8374193058139989
77 2 -1.2 10.049031669767988 61.88598548944664 0.8374193058139989
78 2 -1.2 10.049031669767988 65.75385958253706 0.8374193058139989
79 2 -1.2 10.049031669767988 69.62173367562747 0.8374193058139989
80 2 -1.2 10.049031669767988 73.48960776871789 0.8374193058139989
81 2 -1.2 13.398708893023983 1.9339370465452075 0.8374193058139989
82 2 -1.2 13.398708893023983 5.801811139635623 0.8374193058139989
83 2 -1.2 13.398708893023983 9.669685232726037 0.8374193058139989
84 2 -1.2 13.398708893023983 13.537559325816453 0.8374193058139989
85 2 -1.2 13.398708893023983 17.405433418906867 0.8374193058139989
86 2 -1.2 13.398708893023983 21.27330751199728 0.8374193058139989
87 2 -1.2 13.398708893023983 25.1411816050877 0.8374193058139989
88 2 -1.2 13.398708893023983 29.009055698178113 0.8374193058139989
89 2 -1.2 13.398708893023983 32.87692979126853 0.8374193058139989
90 2 -1.2 13.398708893023983 36.744803884358944 0.8374193058139989
91 2 -1.2 13.398708893023983 40.61267797744936 0.8374193058139989
92 2 -1.2 13.398708893023983 44.48055207053977 0.8374193058139989
93 2 -1.2 13.398708893023983 48.348426163630194 0.8374193058139989
94 2 -1.2 13.398708893023983 52.21630025672061 0.8374193058139989
95 2 -1.2 13.398708893023983 56.08417434981102 0.8374193058139989
96 2 -1.2 13.398708893023983 59.952048442901436 0.8374193058139989
97 2 -1.2 13.398708893023983 63.81992253599185 0.8374193058139989
98 2 -1.2 13.398708893023983 67.68779662908227 0.8374193058139989
99 2 -1.2 13.398708893023983 71.55567072217268 0.8374193058139989
100 2 -1.2 13.398708893023983 75.4235448152631 0.8374193058139989
101 2 -1.2 16.748386116279978 0.0 0.8374193058139989
102 2 -1.2 16.748386116279978 3.867874093090415 0.8374193058139989
103 2 -1.2 16.748386116279978 7.73574818618083 0.8374193058139989
104 2 -1.2 16.748386116279978 11.603622279271246 0.8374193058139989
105 2 -1.2 16.748386116279978 15.47149637236166 0.8374193058139989
106 2 -1.2 16.748386116279978 19.339370465452074 0.8374193058139989
107 2 -1.2 16.748386116279978 23.20724455854249 0.8374193058139989
108 2 -1.2 16.748386116279978 27.075118651632906 0.8374193058139989
109 2 -1.2 16.748386116279978 30.94299274472332 0.8374193058139989
110 2 -1.2 16.748386116279978 34.810866837813734 0.8374193058139989
111 2 -1.2 16.748386116279978 38.67874093090415 0.8374193058139989
112 2 -1.2 16.748386116279978 42.54661502399456 0.8374193058139989
113 2 -1.2 16.748386116279978 46.41448911708498 0.8374193058139989
114 2 -1.2 16.748386116279978 50.2823632101754 0.8374193058139989
115 2 -1.2 16.748386116279978 54.15023730326581 0.8374193058139989
116 2 -1.2 16.748386116279978 58.018111396356225 0.8374193058139989
117 2 -1.2 16.748386116279978 61.88598548944664 0.8374193058139989
118 2 -1.2 16.748386116279978 65.75385958253706 0.8374193058139989
119 2 -1.2 16.748386116279978 69.62173367562747 0.8374193058139989
120 2 -1.2 16.748386116279978 73.48960776871789 0.8374193058139989
121 2 -1.2 20.098063339535976 1.9339370465452075 0.8374193058139989
122 2 -1.2 20.098063339535976 5.801811139635623 0.8374193058139989
123 2 -1.2 20.098063339535976 9.669685232726037 0.8374193058139989
124 2 -1.2 20.098063339535976 13.537559325816453 0.8374193058139989
125 2 -1.2 20.098063339535976 17.405433418906867 0.8374193058139989
126 2 -1.2 20.098063339535976 21.27330751199728 0.8374193058139989
127 2 -1.2 20.098063339535976 25.1411816050877 0.8374193058139989
128 2 -1.2 20.098063339535976 29.009055698178113 0.8374193058139989
129 2 -1.2 20.098063339535976 32.87692979126853 0.8374193058139989
130 2 -1.2 20.098063339535976 36.744803884358944 0.8374193058139989
131 2 -1.2 20.098063339535976 40.61267797744936 0.8374193058139989
132 2 -1.2 20.098063339535976 44.48055207053977 0.8374193058139989
133 2 -1.2 20.098063339535976 48.348426163630194 0.8374193058139989
134 2 -1.2 20.098063339535976 52.21630025672061 0.8374193058139989
135 2 -1.2 20.098063339535976 56.08417434981102 0.8374193058139989
136 2 -1.2 20.098063339535976 59.952048442901436 0.8374193058139989
137 2 -1.2 20.098063339535976 63.81992253599185 0.8374193058139989
138 2 -1.2 20.098063339535976 67.68779662908227 0.8374193058139989
139 2 -1.2 20.098063339535976 71.55567072217268 0.8374193058139989
140 2 -1.2 20.098063339535976 75.4235448152631 0.8374193058139989
141 2 -1.2 23.44774056279197 0.0 0.8374193058139989
142 2 -1.2 23.44774056279197 3.867874093090415 0.8374193058139989
143 2 -1.2 23.44774056279197 7.73574818618083 0.8374193058139989
144 2 -1.2 23.44774056279197 11.603622279271246 0.8374193058139989
145 2 -1.2 23.44774056279197 15.47149637236166 0.8374193058139989
146 2 -1.2 23.44774056279197 19.339370465452074 0.8374193058139989
147 2 -1.2 23.44774056279197 23.20724455854249 0.8374193058139989
148 2 -1.2 23.44774056279197 27.075118651632906 0.8374193058139989
149 2 -1.2 23.44774056279197 30.94299274472332 0.8374193058139989
150 2 -1.2 23.44774056279197 34.810866837813734 0.8374193058139989
151 2 -1.2 23.44774056279197 38.67874093090415 0.8374193058139989
152 2 -1.2 23.44774056279197 42.54661502399456 0.8374193058139989
153 2 -1.2 23.44774056279197 46.41448911708498 0.8374193058139989
154 2 -1.2 23.44774056279197 50.2823632101754 0.8374193058139989
155 2 -1.2 23.44774056279197 54.15023730326581 0.8374193058139989
156 2 -1.2 23.44774056279197 58.018111396356225 0.8374193058139989
157 2 -1.2 23.44774056279197 61.88598548944664 0.8374193058139989
158 2 -1.2 23.44774056279197 65.75385958253706 0.8374193058139989
159 2 -1.2 23.44774056279197 69.62173367562747 0.8374193058139989
160 2 -1.2 23.44774056279197 73.48960776871789 0.8374193058139989
161 2 -1.2 26.797417786047966 1.9339370465452075 0.8374193058139989
162 2 -1.2 26.797417786047966 5.801811139635623 0.8374193058139989
163 2 -1.2 26.797417786047966 9.669685232726037 0.8374193058139989
164 2 -1.2 26.797417786047966 13.537559325816453 0.8374193058139989
165 2 -1.2 26.797417786047966 17.405433418906867 0.8374193058139989
166 2 -1.2 26.797417786047966 21.27330751199728 0.8374193058139989
167 2 -1.2 26.797417786047966 25.1411816050877 0.8374193058139989
168 2 -1.2 26.797417786047966 29.009055698178113 0.8374193058139989
169 2 -1.2 26.797417786047966 32.87692979126853 0.8374193058139989
170 2 -1.2 26.797417786047966 36.744803884358944 0.8374193058139989
171 2 -1.2 26.797417786047966 40.61267797744936 0.8374193058139989
172 2 -1.2 26.797417786047966 44.48055207053977 0.8374193058139989
173 2 -1.2 26.797417786047966 48.348426163630194 0.8374193058139989
174 2 -1.2 26.797417786047966 52.21630025672061 0.8374193058139989
175 2 -1.2 26.797417786047966 56.08417434981102 0.8374193058139989
176 2 -1.2 26.797417786047966 59.952048442901436 0.8374193058139989
177 2 -1.2 26.797417786047966 63.81992253599185 0.8374193058139989
178 2 -1.2 26.797417786047966 67.68779662908227 0.8374193058139989
179 2 -1.2 26.797417786047966 71.55567072217268 0.8374193058139989
180 2 -1.2 26.797417786047966 75.4235448152631 0.8374193058139989
181 2 -1.2 30.14709500930396 0.0 0.8374193058139989
182 2 -1.2 30.14709500930396 3.867874093090415 0.8374193058139989
183 2 -1.2 30.14709500930396 7.73574818618083 0.8374193058139989
184 2 -1.2 30.14709500930396 11.603622279271246 0.8374193058139989
185 2 -1.2 30.14709500930396 15.47149637236166 0.8374193058139989
186 2 -1.2 30.14709500930396 19.339370465452074 0.8374193058139989
187 2 -1.2 30.14709500930396 23.20724455854249 0.8374193058139989
188 2 -1.2 30.14709500930396 27.075118651632906 0.8374193058139989
189 2 -1.2 30.14709500930396 30.94299274472332 0.8374193058139989
190 2 -1.2 30.14709500930396 34.810866837813734 0.8374193058139989
191 2 -1.2 30.14709500930396 38.67874093090415 0.8374193058139989
192 2 -1.2 30.14709500930396 42.54661502399456 0.8374193058139989
193 2 -1.2 30.14709500930396 46.41448911708498 0.8374193058139989
194 2 -1.2 30.14709500930396 50.2823632101754 0.8374193058139989
195 2 -1.2 30.14709500930396 54.15023730326581 0.8374193058139989
196 2 -1.2 30.14709500930396 58.018111396356225 0.8374193058139989
197 2 -1.2 30.14709500930396 61.88598548944664 0.8374193058139989
198 2 -1.2 30.14709500930396 65.75385958253706 0.8374193058139989
199 2 -1.2 30.14709500930396 69.62173367562747 0.8374193058139989
200 2 -1.2 30.14709500930396 73.48960776871789 0.8374193058139989
201 2 -1.2 33.496772232559955 1.9339370465452075 0.8374193058139989
202 2 -1.2 33.496772232559955 5.801811139635623 0.8374193058139989
203 2 -1.2 33.496772232559955 9.669685232726037 0.8374193058139989
204 2 -1.2 33.496772232559955 13.537559325816453 0.8374193058139989
205 2 -1.2 33.496772232559955 17.405433418906867 0.8374193058139989
206 2 -1.2 33.496772232559955 21.27330751199728 0.8374193058139989
207 2 -1.2 33.496772232559955 25.1411816050877 0.8374193058139989
208 2 -1.2 33.496772232559955 29.009055698178113 0.8374193058139989
209 2 -1.2 33.496772232559955 32.87692979126853 0.8374193058139989
210 2 -1.2 33.496772232559955 36.744803884358944 0.8374193058139989
211 2 -1.2 33.496772232559955 40.61267797744936 0.8374193058139989
212 2 -1.2 33.496772232559955 44.48055207053977 0.8374193058139989
213 2 -1.2 33.496772232559955 48.348426163630194 0.8374193058139989
214 2 -1.2 33.496772232559955 52.21630025672061 0.8374193058139989
215 2 -1.2 33.496772232559955 56.08417434981102 0.8374193058139989
216 2 -1.2 33.496772232559955 59.952048442901436 0.8374193058139989
217 2 -1.2 33.496772232559955 63.81992253599185 0.8374193058139989
218 2 -1.2 33.496772232559955 67.68779662908227 0.8374193058139989
219 2 -1.2 33.496772232559955 71.55567072217268 0.8374193058139989
220 2 -1.2 33.496772232559955 75.4235448152631 0.8374193058139989
221 2 -1.2 36.84644945581595 0.0 0.8374193058139989
222 2 -1.2 36.84644945581595 3.867874093090415 0.8374193058139989
223 2 -1.2 36.84644945581595 7.73574818618083 0.8374193058139989
224 2 -1.2 36.84644945581595 11.603622279271246 0.8374193058139989
225 2 -1.2 36.84644945581595 15.47149637236166 0.8374193058139989
226 2 -1.2 36.84644945581595 19.339370465452074 0.8374193058139989
227 2 -1.2 36.84644945581595 23.20724455854249 0.8374193058139989
228 2 -1.2 36.84644945581595 27.075118651632906 0.8374193058139989
229 2 -1.2 36.84644945581595 30.94299274472332 0.8374193058139989
230 2 -1.2 36.84644945581595 34.810866837813734 0.8374193058139989
231 2 -1.2 36.84644945581595 38.67874093090415 0.8374193058139989
232 2 -1.2 36.84644945581595 42.54661502399456 0.8374193058139989
233 2 -1.2 36.84644945581595 46.41448911708498 0.8374193058139989
234 2 -1.2 36.84644945581595 50.2823632101754 0.8374193058139989
235 2 -1.2 36.84644945581595 54.15023730326581 0.8374193058139989
236 2 -1.2 36.84644945581595 58.018111396356225 0.8374193058139989
237 2 -1.2 36.84644945581595 61.88598548944664 0.8374193058139989
238 2 -1.2 36.84644945581595 65.75385958253706 0.8374193058139989
239 2 -1.2 36.84644945581595 69.62173367562747 0.8374193058139989
240 2 -1.2 36.84644945581595 73.48960776871789 0.8374193058139989
241 2 -1.2 40.19612667907195 1.9339370465452075 0.8374193058139989
242 2 -1.2 40.19612667907195 5.801811139635623 0.8374193058139989
243 2 -1.2 40.19612667907195 9.669685232726037 0.8374193058139989
244 2 -1.2 40.19612667907195 13.537559325816453 0.8374193058139989
245 2 -1.2 40.19612667907195 17.405433418906867 0.8374193058139989
246 2 -1.2 40.19612667907195 21.27330751199728 0.8374193058139989
247 2 -1.2 40.19612667907195 25.1411816050877 0.8374193058139989
248 2 -1.2 40.19612667907195 29.009055698178113 0.8374193058139989
249 2 -1.2 40.19612667907195 32.87692979126853 0.8374193058139989
250 2 -1.2 40.19612667907195 36.744803884358944 0.8374193058139989
251 2 -1.2 40.19612667907195 40.61267797744936 0.8374193058139989
252 2 -1.2 40.19612667907195 44.48055207053977 0.8374193058139989
253 2 -1.2 40.19612667907195 48.348426163630194 0.8374193058139989
254 2 -1.2 40.19612667907195 52.21630025672061 0.8374193058139989
255 2 -1.2 40.19612667907195 56.08417434981102 0.8374193058139989
256 2 -1.2 40.19612667907195 59.952048442901436 0.8374193058139989
257 2 -1.2 40.19612667907195 63.81992253599185 0.8374193058139989
258 2 -1.2 40.19612667907195 67.68779662908227 0.8374193058139989
259 2 -1.2 40.19612667907195 71.55567072217268 0.8374193058139989
260 2 -1.2 40.19612667907195 75.4235448152631 0.8374193058139989
261 2 -1.2 43.54580390232795 0.0 0.8374193058139989
262 2 -1.2 43.54580390232795 3.867874093090415 0.8374193058139989
263 2 -1.2 43.54580390232795 7.73574818618083 0.8374193058139989
264 2 -1.2 43.54580390232795 11.603622279271246 0.8374193058139989
265 2 -1.2 43.54580390232795 15.47149637236166 0.8374193058139989
266 2 -1.2 43.54580390232795 19.339370465452074 0.8374193058139989
267 2 -1.2 43.54580390232795 23.20724455854249 0.8374193058139989
268 2 -1.2 43.54580390232795 27.075118651632906 0.8374193058139989
269 2 -1.2 43.54580390232795 30.94299274472332 0.8374193058139989
270 2 -1.2 43.54580390232795 34.810866837813734 0.8374193058139989
271 2 -1.2 43.54580390232795 38.67874093090415 0.8374193058139989
272 2 -1.2 43.54580390232795 42.54661502399456 0.8374193058139989
273 2 -1.2 43.54580390232795 46.41448911708498 0.8374193058139989
274 2 -1.2 43.54580390232795 50.2823632101754 0.8374193058139989
275 2 -1.2 43.54580390232795 54.15023730326581 0.8374193058139989
276 2 -1.2 43.54580390232795 58.018111396356225 0.8374193058139989
277 2 -1.2 43.54580390232795 61.88598548944664 0.8374193058139989
278 2 -1.2 43.54580390232795 65.75385958253706 0.8374193058139989
279 2 -1.2 43.54580390232795 69.62173367562747 0.8374193058139989
280 2 -1.2 43.54580390232795 73.48960776871789 0.8374193058139989
281 2 -1.2 46.89548112558394 1.9339370465452075 0.8374193058139989
282 2 -1.2 46.89548112558394 5.801811139635623 0.8374193058139989
283 2 -1.2 46.89548112558394 9.669685232726037 0.8374193058139989
284 2 -1.2 46.89548112558394 13.537559325816453 0.8374193058139989
285 2 -1.2 46.89548112558394 17.405433418906867 0.8374193058139989
286 2 -1.2 46.89548112558394 21.27330751199728 0.8374193058139989
287 2 -1.2 46.89548112558394 25.1411816050877 0.8374193058139989
288 2 -1.2 46.89548112558394 29.009055698178113 0.8374193058139989
289 2 -1.2 46.89548112558394 32.87692979126853 0.8374193058139989
290 2 -1.2 46.89548112558394 36.744803884358944 0.8374193058139989
291 2 -1.2 46.89548112558394 40.61267797744936 0.8374193058139989
292 2 -1.2 46.89548112558394 44.48055207053977 0.8374193058139989
293 2 -1.2 46.89548112558394 48.348426163630194 0.8374193058139989
294 2 -1.2 46.89548112558394 52.21630025672061 0.8374193058139989
295 2 -1.2 46.89548112558394 56.08417434981102 0.8374193058139989
296 2 -1.2 46.89548112558394 59.952048442901436 0.8374193058139989
297 2 -1.2 46.89548112558394 63.81992253599185 0.8374193058139989
298 2 -1.2 46.89548112558394 67.68779662908227 0.8374193058139989
299 2 -1.2 46.89548112558394 71.55567072217268 0.8374193058139989
300 2 -1.2 46.89548112558394 75.4235448152631 0.8374193058139989
301 2 -1.2 50.24515834883994 0.0 0.8374193058139989
302 2 -1.2 50.24515834883994 3.867874093090415 0.8374193058139989
303 2 -1.2 50.24515834883994 7.73574818618083 0.8374193058139989
304 2 -1.2 50.24515834883994 11.603622279271246 0.8374193058139989
305 2 -1.2 50.24515834883994 15.47149637236166 0.8374193058139989
306 2 -1.2 50.24515834883994 19.339370465452074 0.8374193058139989
307 2 -1.2 50.24515834883994 23.20724455854249 0.8374193058139989
308 2 -1.2 50.24515834883994 27.075118651632906 0.8374193058139989
309 2 -1.2 50.24515834883994 30.94299274472332 0.8374193058139989
310 2 -1.2 50.24515834883994 34.810866837813734 0.8374193058139989
311 2 -1.2 50.24515834883994 38.67874093090415 0.8374193058139989
312 2 -1.2 50.24515834883994 42.54661502399456 0.8374193058139989
313 2 -1.2 50.24515834883994 46.41448911708498 0.8374193058139989
314 2 -1.2 50.24515834883994 50.2823632101754 0.8374193058139989
315 2 -1.2 50.24515834883994 54.15023730326581 0.8374193058139989
316 2 -1.2 50.24515834883994 58.018111396356225 0.8374193058139989
317 2 -1.2 50.24515834883994 61.88598548944664 0.8374193058139989
318 2 -1.2 50.24515834883994 65.75385958253706 0.8374193058139989
319 2 -1.2 50.24515834883994 69.62173367562747 0.8374193058139989
320 2 -1.2 50.24515834883994 73.48960776871789 0.8374193058139989
321 2 -1.2 53.59483557209593 1.9339370465452075 0.8374193058139989
322 2 -1.2 53.59483557209593 5.801811139635623 0.8374193058139989
323 2 -1.2 53.59483557209593 9.669685232726037 0.8374193058139989
324 2 -1.2 53.59483557209593 13.537559325816453 0.8374193058139989
325 2 -1.2 53.59483557209593 17.405433418906867 0.8374193058139989
326 2 -1.2 53.59483557209593 21.27330751199728 0.8374193058139989
327 2 -1.2 53.59483557209593 25.1411816050877 0.8374193058139989
328 2 -1.2 53.59483557209593 29.009055698178113 0.8374193058139989
329 2 -1.2 53.59483557209593 32.87692979126853 0.8374193058139989
330 2 -1.2 53.59483557209593 36.744803884358944 0.8374193058139989
331 2 -1.2 53.59483557209593 40.61267797744936 0.8374193058139989
332 2 -1.2 53.59483557209593 44.48055207053977 0.8374193058139989
333 2 -1.2 53.59483557209593 48.348426163630194 0.8374193058139989
334 2 -1.2 53.59483557209593 52.21630025672061 0.8374193058139989
335 2 -1.2 53.59483557209593 56.08417434981102 0.8374193058139989
336 2 -1.2 53.59483557209593 59.952048442901436 0.8374193058139989
337 2 -1.2 53.59483557209593 63.81992253599185 0.8374193058139989
338 2 -1.2 53.59483557209593 67.68779662908227 0.8374193058139989
339 2 -1.2 53.59483557209593 71.55567072217268 0.8374193058139989
340 2 -1.2 53.59483557209593 75.4235448152631 0.8374193058139989
341 2 -1.2 56.944512795351926 0.0 0.8374193058139989
342 2 -1.2 56.944512795351926 3.867874093090415 0.8374193058139989
343 2 -1.2 56.944512795351926 7.73574818618083 0.8374193058139989
344 2 -1.2 56.944512795351926 11.603622279271246 0.8374193058139989
345 2 -1.2 56.944512795351926 15.47149637236166 0.8374193058139989
346 2 -1.2 56.944512795351926 19.339370465452074 0.8374193058139989
347 2 -1.2 56.944512795351926 23.20724455854249 0.8374193058139989
348 2 -1.2 56.944512795351926 27.075118651632906 0.8374193058139989
349 2 -1.2 56.944512795351926 30.94299274472332 0.8374193058139989
350 2 -1.2 56.944512795351926 34.810866837813734 0.8374193058139989
351 2 -1.2 56.944512795351926 38.67874093090415 0.8374193058139989
352 2 -1.2 56.944512795351926 42.54661502399456 0.8374193058139989
353 2 -1.2 56.944512795351926 46.41448911708498 0.8374193058139989
354 2 -1.2 56.944512795351926 50.2823632101754 0.8374193058139989
355 2 -1.2 56.944512795351926 54.15023730326581 0.8374193058139989
356 2 -1.2 56.944512795351926 58.018111396356225 0.8374193058139989
357 2 -1.2 56.944512795351926 61.88598548944664 0.8374193058139989
358 2 -1.2 56.944512795351926 65.75385958253706 0.8374193058139989
359 2 -1.2 56.944512795351926 69.62173367562747 0.8374193058139989
360 2 -1.2 56.944512795351926 73.48960776871789 0.8374193058139989
361 2 -1.2 60.29419001860792 1.9339370465452075 0.8374193058139989
362 2 -1.2 60.29419001860792 5.801811139635623 0.8374193058139989
363 2 -1.2 60.29419001860792 9.669685232726037 0.8374193058139989
364 2 -1.2 60.29419001860792 13.537559325816453 0.8374193058139989
365 2 -1.2 60.29419001860792 17.405433418906867 0.8374193058139989
366 2 -1.2 60.29419001860792 21.27330751199728 0.8374193058139989
367 2 -1.2 60.29419001860792 25.1411816050877 0.8374193058139989
368 2 -1.2 60.29419001860792 29.009055698178113 0.8374193058139989
369 2 -1.2 60.29419001860792 32.87692979126853 0.8374193058139989
370 2 -1.2 60.29419001860792 36.744803884358944 0.8374193058139989
371 2 -1.2 60.29419001860792 40.61267797744936 0.8374193058139989
372 2 -1.2 60.29419001860792 44.48055207053977 0.8374193058139989
373 2 -1.2 60.29419001860792 48.348426163630194 0.8374193058139989
374 2 -1.2 60.29419001860792 52.21630025672061 0.8374193058139989
375 2 -1.2 60.29419001860792 56.08417434981102 0.8374193058139989
376 2 -1.2 60.29419001860792 59.952048442901436 0.8374193058139989
377 2 -1.2 60.29419001860792 63.81992253599185 0.8374193058139989
378 2 -1.2 60.29419001860792 67.68779662908227 0.8374193058139989
379 2 -1.2 60.29419001860792 71.55567072217268 0.8374193058139989
380 2 -1.2 60.29419001860792 75.4235448152631 0.8374193058139989
381 2 -1.2 63.643867241863916 0.0 0.8374193058139989
382 2 -1.2 63.643867241863916 3.867874093090415 0.8374193058139989
383 2 -1.2 63.643867241863916 7.73574818618083 0.8374193058139989
384 2 -1.2 63.643867241863916 11.603622279271246 0.8374193058139989
385 2 -1.2 63.643867241863916 15.47149637236166 0.8374193058139989
386 2 -1.2 63.643867241863916 19.339370465452074 0.8374193058139989
387 2 -1.2 63.643867241863916 23.20724455854249 0.8374193058139989
388 2 -1.2 63.643867241863916 27.075118651632906 0.8374193058139989
389 2 -1.2 63.643867241863916 30.94299274472332 0.8374193058139989
390 2 -1.2 63.643867241863916 34.810866837813734 0.8374193058139989
391 2 -1.2 63.643867241863916 38.67874093090415 0.8374193058139989
392 2 -1.2 63.643867241863916 42.54661502399456 0.8374193058139989
393 2 -1.2 63.643867241863916 46.41448911708498 0.8374193058139989
394 2 -1.2 63.643867241863916 50.2823632101754 0.8374193058139989
395 2 -1.2 63.643867241863916 54.15023730326581 0.8374193058139989
396 2 -1.2 63.643867241863916 58.018111396356225 0.8374193058139989
397 2 -1.2 63.643867241863916 61.88598548944664 0.8374193058139989
398 2 -1.2 63.643867241863916 65.75385958253706 0.8374193058139989
399 2 -1.2 63.643867241863916 69.62173367562747 0.8374193058139989
400 2 -1.2 63.643867241863916 73.48960776871789 0.8374193058139989
401 2 -1.2 0.0 1.9339370465452075 2.512257917441997
402 2 -1.2 0.0 5.801811139635623 2.512257917441997
403 2 -1.2 0.0 9.669685232726037 2.512257917441997
404 2 -1.2 0.0 13.537559325816453 2.512257917441997
405 2 -1.2 0.0 17.405433418906867 2.512257917441997
406 2 -1.2 0.0 21.27330751199728 2.512257917441997
407 2 -1.2 0.0 25.1411816050877 2.512257917441997
408 2 -1.2 0.0 29.009055698178113 2.512257917441997
409 2 -1.2 0.0 32.87692979126853 2.512257917441997
410 2 -1.2 0.0 36.744803884358944 2.512257917441997
411 2 -1.2 0.0 40.61267797744936 2.512257917441997
412 2 -1.2 0.0 44.48055207053977 2.512257917441997
413 2 -1.2 0.0 48.348426163630194 2.512257917441997
414 2 -1.2 0.0 52.21630025672061 2.512257917441997
415 2 -1.2 0.0 56.08417434981102 2.512257917441997
416 2 -1.2 0.0 59.952048442901436 2.512257917441997
417 2 -1.2 0.0 63.81992253599185 2.512257917441997
418 2 -1.2 0.0 67.68779662908227 2.512257917441997
419 2 -1.2 0.0 71.55567072217268 2.512257917441997
420 2 -1.2 0.0 75.4235448152631 2.512257917441997
421 2 -1.2 3.3496772232559957 0.0 2.512257917441997
422 2 -1.2 3.3496772232559957 3.867874093090415 2.512257917441997
423 2 -1.2 3.3496772232559957 7.73574818618083 2.512257917441997
424 2 -1.2 3.3496772232559957 11.603622279271246 2.512257917441997
425 2 -1.2 3.3496772232559957 15.47149637236166 2.512257917441997
426 2 -1.2 3.3496772232559957 19.339370465452074 2.512257917441997
427 2 -1.2 3.3496772232559957 23.20724455854249 2.512257917441997
428 2 -1.2 3.3496772232559957 27.075118651632906 2.512257917441997
429 2 -1.2 3.3496772232559957 30.94299274472332 2.512257917441997
430 2 -1.2 3.3496772232559957 34.810866837813734 2.512257917441997
431 2 -1.2 3.3496772232559957 38.67874093090415 2.512257917441997
432 2 -1.2 3.3496772232559957 42.54661502399456 2.512257917441997
433 2 -1.2 3.3496772232559957 46.41448911708498 2.512257917441997
434 2 -1.2 3.3496772232559957 50.2823632101754 2.512257917441997
435 2 -1.2 3.3496772232559957 54.15023730326581 2.512257917441997
436 2 -1.2 3.3496772232559957 58.018111396356225 2.512257917441997
437 2 -1.2 3.3496772232559957 61.88598548944664 2.512257917441997
438 2 -1.2 3.3496772232559957 65.75385958253706 2.512257917441997
439 2 -1.2 3.3496772232559957 69.62173367562747 2.512257917441997
440 2 -1.2 3.3496772232559957 73.48960776871789 2.512257917441997
441 2 -1.2 6.699354446511991 1.9339370465452075 2.512257917441997
442 2 -1.2 6.699354446511991 5.801811139635623 2.512257917441997
443 2 -1.2 6.699354446511991 9.669685232726037 2.512257917441997
444 2 -1.2 6.699354446511991 13.537559325816453 2.512257917441997
445 2 -1.2 6.699354446511991 17.405433418906867 2.512257917441997
446 2 -1.2 6.699354446511991 21.27330751199728 2.512257917441997
447 2 -1.2 6.699354446511991 25.1411816050877 2.512257917441997
448 2 -1.2 6.699354446511991 29.009055698178113 2.512257917441997
449 2 -1.2 6.699354446511991 32.87692979126853 2.512257917441997
450 2 -1.2 6.699354446511991 36.744803884358944 2.512257917441997
451 2 -1.2 6.699354446511991 40.61267797744936 2.512257917441997
452 2 -1.2 6.699354446511991 44.48055207053977 2.512257917441997
453 2 -1.2 6.699354446511991 48.348426163630194 2.512257917441997
454 2 -1.2 6.699354446511991 52.21630025672061 2.512257917441997
455 2 -1.2 6.699354446511991 56.08417434981102 2.512257917441997
456 2 -1.2 6.699354446511991 59.952048442901436 2.512257917441997
457 2 -1.2 6.699354446511991 63.81992253599185 2.512257917441997
458 2 -1.2 6.699354446511991 67.68779662908227 2.512257917441997
459 2 -1.2 6.699354446511991 71.55567072217268 2.512257917441997